
     Program PWSCF v.7.2 starts on 23Jan2024 at 19:27:43 

     This program is part of the open-source Quantum ESPRESSO suite
     for quantum simulation of materials; please cite
         "P. Giannozzi et al., J. Phys.:Condens. Matter 21 395502 (2009);
         "P. Giannozzi et al., J. Phys.:Condens. Matter 29 465901 (2017);
         "P. Giannozzi et al., J. Chem. Phys. 152 154105 (2020);
          URL http://www.quantum-espresso.org", 
     in publications or presentations arising from this work. More details at
     http://www.quantum-espresso.org/quote

     Parallel version (MPI), running on   144 processors

     MPI processes distributed on     3 nodes
     155765 MiB available memory on the printing compute node when the environment starts
 
     Waiting for input...
     Reading input from standard input
Warning: card &CELL ignored
Warning: card   CELL_DYNAMICS='BFGS', ignored
Warning: card   PRESS=0.0, ignored
Warning: card   PRESS_CONV_THR=0.5, ignored
Warning: card / ignored

     Current dimensions of program PWSCF are:
     Max number of different atomic species (ntypx) = 10
     Max number of k-points (npk) =  40000
     Max angular momentum in pseudopotentials (lmaxx) =  4

     gamma-point specific algorithms are used
 
     R & G space division:  proc/nbgrp/npool/nimage =     144
     WARNING: too many processors for an effective parallelization!
     wavefunctions fft division:  task group distribution
                                  #TG    x Z-proc =       6     24
     Subspace diagonalization in iterative solution of the eigenvalue problem:
     one sub-group per band group will be used
     custom distributed-memory algorithm (size of sub-group: 12* 12 procs)

 
     Parallelization info
     --------------------
     sticks:   dense  smooth     PW     G-vecs:    dense   smooth      PW
     Min         722     288     71                95446    24144    3016
     Max         724     290     74                95460    24154    3024
     Sum      104093   41679  10413             13744995  3477509  434775
 
     Using Pencil Decomposition
 


     bravais-lattice index     =            0
     lattice parameter (alat)  =      15.5789  a.u.
     unit-cell volume          =  101744.6518 (a.u.)^3
     number of atoms/cell      =          361
     number of atomic types    =            3
     number of electrons       =      3175.00
     number of Kohn-Sham states=         1906
     kinetic-energy cutoff     =      40.0000  Ry
     charge density cutoff     =     400.0000  Ry
     scf convergence threshold =      1.0E-06
     mixing beta               =       0.4000
     number of iterations used =            8  plain     mixing
     energy convergence thresh.=      1.0E-04
     force convergence thresh. =      1.0E-03
     Exchange-correlation= SLA  PW   PBE  PBE
                           (   1   4   3   4   0   0   0)
     nstep                     =           50


     celldm(1)=  15.578902  celldm(2)=   0.000000  celldm(3)=   0.000000
     celldm(4)=   0.000000  celldm(5)=   0.000000  celldm(6)=   0.000000

     crystal axes: (cart. coord. in units of alat)
               a(1) = (   3.102019   0.000001   0.000004 )  
               a(2) = (   0.000001   4.343709  -0.000001 )  
               a(3) = (   0.000002  -0.000001   1.997082 )  

     reciprocal axes: (cart. coord. in units 2 pi/alat)
               b(1) = (  0.322371 -0.000000 -0.000000 )  
               b(2) = ( -0.000000  0.230218  0.000000 )  
               b(3) = ( -0.000001  0.000000  0.500731 )  


     PseudoPot. # 1 for Br read from file:
     ../../../pseudo/br_pbe_v1.4.uspp.F.UPF
     MD5 check sum: d3ffb7b29f6225aa16fe06858fb2a80b
     Pseudo is Ultrasoft + core correction, Zval =  7.0
     Generated by new atomic code, or converted to UPF format
     Using radial grid of  879 points,  6 beta functions with: 
                l(1) =   0
                l(2) =   0
                l(3) =   1
                l(4) =   1
                l(5) =   2
                l(6) =   2
     Q(r) pseudized with  8 coefficients,  rinner =    1.100   1.100   1.100
                                                       1.100   1.100

     PseudoPot. # 2 for Cs read from file:
     ../../../pseudo/cs_pbe_v1.uspp.F.UPF
     MD5 check sum: 3476d69cb178dfad3ffaa59df4e07ca4
     Pseudo is Ultrasoft + core correction, Zval =  9.0
     Generated by new atomic code, or converted to UPF format
     Using radial grid of  905 points,  6 beta functions with: 
                l(1) =   0
                l(2) =   0
                l(3) =   1
                l(4) =   1
                l(5) =   2
                l(6) =   2
     Q(r) pseudized with  6 coefficients,  rinner =    1.500   1.500   1.500
                                                       1.500   1.500

     PseudoPot. # 3 for Pb read from file:
     ../../../pseudo/pb_pbe_v1.uspp.F.UPF
     MD5 check sum: 3d1c1779aa92214d1e8f3a7db79003e2
     Pseudo is Ultrasoft + core correction, Zval = 14.0
     Generated by new atomic code, or converted to UPF format
     Using radial grid of  899 points,  6 beta functions with: 
                l(1) =   0
                l(2) =   0
                l(3) =   1
                l(4) =   1
                l(5) =   2
                l(6) =   2
     Q(r) pseudized with  6 coefficients,  rinner =    1.000   1.000   1.000
                                                       1.000   1.000

     atomic species   valence    mass     pseudopotential
        Br             7.00    79.90400     Br( 1.00)
        Cs             9.00   132.90545     Cs( 1.00)
        Pb            14.00   207.20000     Pb( 1.00)

     No symmetry found


                                    s                        frac. trans.

      isym =  1     identity                                     

 cryst.   s( 1) = (     1          0          0      )
                  (     0          1          0      )
                  (     0          0          1      )

 cart.    s( 1) = (  1.0000000  0.0000000  0.0000000 )
                  ( -0.0000000  1.0000000  0.0000000 )
                  (  0.0000000  0.0000000  1.0000000 )


   Cartesian axes

     site n.     atom                  positions (alat units)
         1           Pb  tau(   1) = (  -0.0003803   0.7245545   0.0002931  )
         2           Pb  tau(   2) = (   0.5167243  -0.0002595   0.4996027  )
         3           Pb  tau(   3) = (   0.5163864   0.7251136   0.4993942  )
         4           Pb  tau(   4) = (   0.0000000   0.0000000   0.0000000  )
         5           Pb  tau(   5) = (   0.0000017   2.1718544   0.9985402  )
         6           Pb  tau(   6) = (   1.0336905   0.7246873  -0.0001655  )
         7           Pb  tau(   7) = (   1.0336905   2.1716653   1.0586435  )
         8           Pb  tau(   8) = (   2.0686250   0.7245739   0.0000650  )
         9           Pb  tau(   9) = (   2.0683322   2.1720443   0.9983531  )
        10           Pb  tau(  10) = (   0.0000005   2.1718547  -0.0000006  )
        11           Pb  tau(  11) = (   0.0002165   3.6190457   0.9985135  )
        12           Pb  tau(  12) = (   1.0336322   2.1719451  -0.0000103  )
        13           Pb  tau(  13) = (   1.0333418   3.6188232   0.9987267  )
        14           Pb  tau(  14) = (   2.0683880   2.1717651   0.0000128  )
        15           Pb  tau(  15) = (   2.0681261   3.6189343   0.9983351  )
        16           Pb  tau(  16) = (   0.0003814   3.6191549  -0.0002943  )
        17           Pb  tau(  17) = (   1.0333952   3.6191363  -0.0000625  )
        18           Pb  tau(  18) = (  -0.0002130   0.7246632   0.9985669  )
        19           Pb  tau(  19) = (   2.0683297   3.6190229   0.0001680  )
        20           Pb  tau(  20) = (   1.0338965   0.7247753   0.9987490  )
        21           Pb  tau(  21) = (   2.0686808   0.7248865   0.9983574  )
        22           Pb  tau(  22) = (   0.5166306   1.4488522   1.4973988  )
        23           Pb  tau(  23) = (   1.5510577  -0.0001382   0.4996875  )
        24           Pb  tau(  24) = (   1.5509212   1.4488126   1.4973129  )
        25           Pb  tau(  25) = (   2.5852884   0.0001681   0.4995693  )
        26           Pb  tau(  26) = (   2.5852778   1.4488594   1.4975034  )
        27           Pb  tau(  27) = (   0.5165927   1.4487966   0.4997949  )
        28           Pb  tau(  28) = (   0.5167222   2.8951331   1.4971592  )
        29           Pb  tau(  29) = (   1.5509739   1.4487075   0.4999282  )
        30           Pb  tau(  30) = (   1.5510488   2.8950021   1.4971559  )
        31           Pb  tau(  31) = (   2.5853004   1.4485765   0.4999249  )
        32           Pb  tau(  32) = (   2.5854299   2.8949130   1.4972892  )
        33           Pb  tau(  33) = (   0.5167448   2.8948502   0.4995807  )
        34           Pb  tau(  34) = (   1.5511014   2.8948970   0.4997712  )
        35           Pb  tau(  35) = (   0.5167331  -0.0001678   1.4975159  )
        36           Pb  tau(  36) = (   2.5853920   2.8948574   0.4996853  )
        37           Pb  tau(  37) = (   1.5509638   0.0001384   1.4973978  )
        38           Pb  tau(  38) = (   2.5852973   0.0002598   1.4974826  )
        39           Pb  tau(  39) = (   0.5165740   2.1718992   1.4974646  )
        40           Pb  tau(  40) = (   1.5514292   0.7245955   0.4996812  )
        41           Pb  tau(  41) = (   1.5509708   2.1716958   1.4972336  )
        42           Pb  tau(  42) = (   2.5850904   0.7248062   0.4997253  )
        43           Pb  tau(  43) = (   2.5854069   2.1721557   1.4974908  )
        44           Pb  tau(  44) = (   0.5166157   2.1715539   0.4995933  )
        45           Pb  tau(  45) = (   0.5169322   3.6189034   1.4973588  )
        46           Pb  tau(  46) = (   1.5510518   2.1720138   0.4998505  )
        47           Pb  tau(  47) = (   1.5505934   3.6191141   1.4974029  )
        48           Pb  tau(  48) = (   2.5854486   2.1718104   0.4996195  )
        49           Pb  tau(  49) = (   2.5856362   3.6185960   1.4976899  )
        50           Pb  tau(  50) = (   0.5167066   3.6192517   0.4998200  )
        51           Pb  tau(  51) = (   1.5506603   3.6190514   0.5000371  )
        52           Pb  tau(  52) = (   0.5163472   0.7243946   1.4971325  )
        53           Pb  tau(  53) = (   2.5856754   3.6193150   0.4999516  )
        54           Pb  tau(  54) = (   1.5513623   0.7246582   1.4970470  )
        55           Pb  tau(  55) = (   2.5853160   0.7244579   1.4972641  )
        56           Pb  tau(  56) = (   0.0000941   1.4486616   0.9980289  )
        57           Pb  tau(  57) = (   1.0337031  -0.0002474  -0.0000686  )
        58           Pb  tau(  58) = (   1.0336221   1.4489930   0.9982967  )
        59           Pb  tau(  59) = (   2.0683160   0.0002482   0.0000723  )
        60           Pb  tau(  60) = (   2.0681671   1.4486320   0.9978825  )
        61           Pb  tau(  61) = (   0.0001140   1.4488157   0.0003159  )
        62           Pb  tau(  62) = (  -0.0000907   2.8950472   0.9990515  )
        63           Pb  tau(  63) = (   1.0335223   1.4487379   0.0001467  )
        64           Pb  tau(  64) = (   1.0338555   2.8950776   0.9992016  )
        65           Pb  tau(  65) = (   2.0683791   1.4487579   0.0003042  )
        66           Pb  tau(  66) = (   2.0684005   2.8947166   0.9987874  )
        67           Pb  tau(  67) = (  -0.0001130   2.8948936  -0.0003171  )
        68           Pb  tau(  68) = (   1.0336411   2.8949522  -0.0003017  )
        69           Pb  tau(  69) = (   0.0000012  -0.0000003   0.9985408  )
        70           Pb  tau(  70) = (   2.0684980   2.8949722  -0.0001441  )
        71           Pb  tau(  71) = (   1.0338296  -0.0002610   0.9988765  )
        72           Pb  tau(  72) = (   2.0681919   0.0002612   0.9982088  )
        73           Cs  tau(  73) = (   0.5778874   0.3617650   0.0173782  )
        74           Cs  tau(  74) = (   0.9732724   1.0856509   0.5165234  )
        75           Cs  tau(  75) = (   0.4564328   1.0855899   0.9813883  )
        76           Cs  tau(  76) = (   0.0608682   0.3618682   0.4820384  )
        77           Cs  tau(  77) = (   0.5775471   1.8097082   1.0155685  )
        78           Cs  tau(  78) = (   1.6118499   0.3617327   0.0171822  )
        79           Cs  tau(  79) = (   1.6114928   1.8097091   1.0154728  )
        80           Cs  tau(  80) = (   2.6457592   0.3618040   0.0173599  )
        81           Cs  tau(  81) = (   2.6454237   1.8097176   1.0157480  )
        82           Cs  tau(  82) = (   0.5777849   1.8097512   0.0172337  )
        83           Cs  tau(  83) = (   0.5778662   3.2581337   1.0157099  )
        84           Cs  tau(  84) = (   1.6117630   1.8097353   0.0172519  )
        85           Cs  tau(  85) = (   1.6115740   3.2580712   1.0155716  )
        86           Cs  tau(  86) = (   2.6456826   1.8096377   0.0171456  )
        87           Cs  tau(  87) = (   2.6455898   3.2581197   1.0156958  )
        88           Cs  tau(  88) = (   0.5778169   3.2581664   0.0172696  )
        89           Cs  tau(  89) = (   1.6119453   3.2581568   0.0171893  )
        90           Cs  tau(  90) = (   0.5779254   0.3618667   1.0156242  )
        91           Cs  tau(  91) = (   2.6458623   3.2581440   0.0172063  )
        92           Cs  tau(  92) = (   1.6115333   0.3618100   1.0157784  )
        93           Cs  tau(  93) = (   2.6455484   0.3617682   1.0157085  )
        94           Cs  tau(  94) = (   0.9736633   2.5340813   1.5148391  )
        95           Cs  tau(  95) = (   2.0072383   1.0856752   0.5162203  )
        96           Cs  tau(  96) = (   2.0073484   2.5340525   1.5151615  )
        97           Cs  tau(  97) = (   3.0413346   1.0855425   0.5162926  )
        98           Cs  tau(  98) = (   3.0415292   2.5339561   1.5150289  )
        99           Cs  tau(  99) = (   0.9731770   2.5339748   0.5164368  )
       100           Cs  tau( 100) = (   0.9734411   3.9818108   1.5149130  )
       101           Cs  tau( 101) = (   2.0072909   2.5340061   0.5161547  )
       102           Cs  tau( 102) = (   2.0071040   3.9819258   1.5152957  )
       103           Cs  tau( 103) = (   3.0413700   2.5340972   0.5164721  )
       104           Cs  tau( 104) = (   3.0411545   3.9818414   1.5150457  )
       105           Cs  tau( 105) = (   0.9732977   3.9818387   0.5165980  )
       106           Cs  tau( 106) = (   2.0071219   3.9817980   0.5162116  )
       107           Cs  tau( 107) = (   0.9735767   1.0855827   1.5148380  )
       108           Cs  tau( 108) = (   3.0411470   3.9818533   0.5165579  )
       109           Cs  tau( 109) = (   2.0072153   1.0855307   1.5151979  )
       110           Cs  tau( 110) = (   3.0412817   1.0857234   1.5152194  )
       111           Cs  tau( 111) = (   0.4563400   2.5340719   1.9799385  )
       112           Cs  tau( 112) = (   1.4904486   1.0856384   0.9815125  )
       113           Cs  tau( 113) = (   1.4902596   2.5339743   1.9798322  )
       114           Cs  tau( 114) = (   2.5241564   1.0855759   0.9813742  )
       115           Cs  tau( 115) = (   2.5242377   2.5339584   1.9798504  )
       116           Cs  tau( 116) = (   0.4565989   2.5339920   0.9813361  )
       117           Cs  tau( 117) = (   0.4562634   3.9819056   1.9797242  )
       118           Cs  tau( 118) = (   1.4905298   2.5340005   0.9816113  )
       119           Cs  tau( 119) = (   1.4901727   3.9819769   1.9799019  )
       120           Cs  tau( 120) = (   2.5244755   2.5340014   0.9815155  )
       121           Cs  tau( 121) = (   2.5241352   3.9819446   1.9797059  )
       122           Cs  tau( 122) = (   0.4564742   3.9819414   0.9813756  )
       123           Cs  tau( 123) = (   1.4904893   3.9818996   0.9813057  )
       124           Cs  tau( 124) = (   0.4561603   1.0855656   1.9798778  )
       125           Cs  tau( 125) = (   2.5240972   3.9818429   0.9814598  )
       126           Cs  tau( 126) = (   1.4900773   1.0855528   1.9798948  )
       127           Cs  tau( 127) = (   2.5242057   1.0855432   1.9798145  )
       128           Cs  tau( 128) = (   0.0606527   1.8096124   1.4806120  )
       129           Cs  tau( 129) = (   1.0949186   0.3617838   0.4817883  )
       130           Cs  tau( 130) = (   1.0947317   1.8097035   1.4809294  )
       131           Cs  tau( 131) = (   2.1285815   0.3618988   0.4821711  )
       132           Cs  tau( 132) = (   2.1288456   1.8097348   1.4806473  )
       133           Cs  tau( 133) = (   0.0604934   1.8097535   0.4820552  )
       134           Cs  tau( 134) = (   0.0606880   3.2581671   1.4807915  )
       135           Cs  tau( 135) = (   1.0946742   1.8096571   0.4819226  )
       136           Cs  tau( 136) = (   1.0947844   3.2580344   1.4808638  )
       137           Cs  tau( 137) = (   2.1283593   1.8096283   0.4822450  )
       138           Cs  tau( 138) = (   2.1287502   3.2580587   1.4805607  )
       139           Cs  tau( 139) = (   0.0607409   3.2579862   0.4818647  )
       140           Cs  tau( 140) = (   1.0948073   3.2581789   0.4818862  )
       141           Cs  tau( 141) = (   0.0608756   0.3618563   1.4805262  )
       142           Cs  tau( 142) = (   2.1284459   3.2581269   0.4822461  )
       143           Cs  tau( 143) = (   1.0949007   0.3619116   1.4808724  )
       144           Cs  tau( 144) = (   2.1287249   0.3618709   1.4804861  )
       145           Br  tau( 145) = (   1.0336904   2.1716653   0.9388186  )
       146           Br  tau( 146) = (   0.3064724   0.6728446   0.2003888  )
       147           Br  tau( 147) = (   0.2106042   1.3967308   0.6995574  )
       148           Br  tau( 148) = (   0.2105661   0.7751086   0.6994254  )
       149           Br  tau( 149) = (   0.7278235   1.3969854   0.7979501  )
       150           Br  tau( 150) = (   0.7274949   0.7749040   0.7982978  )
       151           Br  tau( 151) = (   0.8229301   0.0507030   0.2987014  )
       152           Br  tau( 152) = (   0.8227944   0.6731112   0.2989832  )
       153           Br  tau( 153) = (   0.3066581   0.0510044   0.2005085  )
       154           Br  tau( 154) = (   0.3059311   2.1209720   1.1986827  )
       155           Br  tau( 155) = (   1.3402135   0.6729749   0.2004303  )
       156           Br  tau( 156) = (   1.3406869   2.1205957   1.1983035  )
       157           Br  tau( 157) = (   2.3741830   0.6726435   0.2004887  )
       158           Br  tau( 158) = (   2.3742955   2.1210609   1.1990438  )
       159           Br  tau( 159) = (   0.3066802   2.1206775   0.2003535  )
       160           Br  tau( 160) = (   0.3058478   3.5688583   1.1986558  )
       161           Br  tau( 161) = (   1.3400962   2.1212296   0.2006039  )
       162           Br  tau( 162) = (   1.3403996   3.5686119   1.1982943  )
       163           Br  tau( 163) = (   2.3744119   2.1208254   0.2001773  )
       164           Br  tau( 164) = (   2.3745277   3.5688056   1.1987862  )
       165           Br  tau( 165) = (   0.3065442   3.5689430   0.2005061  )
       166           Br  tau( 166) = (   1.3401441   3.5691399   0.2003578  )
       167           Br  tau( 167) = (   0.3058705   0.6729369   1.1988696  )
       168           Br  tau( 168) = (   2.3745928   3.5685733   0.2002684  )
       169           Br  tau( 169) = (   1.3403605   0.6726106   1.1984763  )
       170           Br  tau( 170) = (   2.3745392   0.6726927   1.1991067  )
       171           Br  tau( 171) = (   0.2104526   2.8446241   1.6977857  )
       172           Br  tau( 172) = (   1.2453336   1.3971418   0.6997418  )
       173           Br  tau( 173) = (   1.2444199   2.8448508   1.6976839  )
       174           Br  tau( 174) = (   2.2788312   1.3967611   0.6995225  )
       175           Br  tau( 175) = (   2.2787940   2.8449415   1.6981384  )
       176           Br  tau( 176) = (   0.2108136   2.8450425   0.6997169  )
       177           Br  tau( 177) = (   0.2105395   4.2925491   1.6982472  )
       178           Br  tau( 178) = (   1.2447263   2.8450301   0.6998273  )
       179           Br  tau( 179) = (   1.2443287   4.2922069   1.6975934  )
       180           Br  tau( 180) = (   2.2785017   2.8448833   0.6993025  )
       181           Br  tau( 181) = (   2.2790925   4.2930066   1.6983827  )
       182           Br  tau( 182) = (   0.2107890   4.2926054   0.6994575  )
       183           Br  tau( 183) = (   1.2451095   4.2927909   0.6998535  )
       184           Br  tau( 184) = (   0.2108312   1.3969959   1.6985368  )
       185           Br  tau( 185) = (   2.2784913   4.2925931   0.6994382  )
       186           Br  tau( 186) = (   1.2441382   1.3965812   1.6979474  )
       187           Br  tau( 187) = (   2.2788315   1.3968664   1.6979695  )
       188           Br  tau( 188) = (   0.2106393   2.2232486   1.6980280  )
       189           Br  tau( 189) = (   1.2450736   0.7747053   0.6997255  )
       190           Br  tau( 190) = (   1.2442842   2.2229154   1.6978982  )
       191           Br  tau( 191) = (   2.2787108   0.7747021   0.6993346  )
       192           Br  tau( 192) = (   2.2787023   2.2228046   1.6980491  )
       193           Br  tau( 193) = (   0.2107403   2.2224281   0.6996572  )
       194           Br  tau( 194) = (   0.2106579   3.6709308   1.6982101  )
       195           Br  tau( 195) = (   1.2449624   2.2226859   0.6997228  )
       196           Br  tau( 196) = (   1.2442938   3.6714212   1.6976595  )
       197           Br  tau( 197) = (   2.2787474   2.2228229   0.6994376  )
       198           Br  tau( 198) = (   2.2792282   3.6705984   1.6981009  )
       199           Br  tau( 199) = (   0.2109104   3.6710314   0.6998185  )
       200           Br  tau( 200) = (   1.2450044   3.6707257   0.7000266  )
       201           Br  tau( 201) = (   0.2105962   0.7746508   1.6984839  )
       202           Br  tau( 202) = (   2.2784433   3.6711105   0.6993799  )
       203           Br  tau( 203) = (   1.2441945   0.7750786   1.6975931  )
       204           Br  tau( 204) = (   2.2789102   0.7747167   1.6981719  )
       205           Br  tau( 205) = (   0.7276645   2.8447619   1.7968474  )
       206           Br  tau( 206) = (   1.7614879   1.3965782   0.7986207  )
       207           Br  tau( 207) = (   1.7617683   2.8452865   1.7965237  )
       208           Br  tau( 208) = (   2.7962902   1.3967964   0.7982597  )
       209           Br  tau( 209) = (   2.7954118   2.8447571   1.7968361  )
       210           Br  tau( 210) = (   0.7274934   2.8450299   0.7982550  )
       211           Br  tau( 211) = (   0.7278510   4.2925109   1.7968997  )
       212           Br  tau( 212) = (   1.7614167   2.8445838   0.7988250  )
       213           Br  tau( 213) = (   1.7617704   4.2928466   1.7966175  )
       214           Br  tau( 214) = (   2.7958948   2.8449215   0.7985260  )
       215           Br  tau( 215) = (   2.7953645   4.2927052   1.7965756  )
       216           Br  tau( 216) = (   0.7275684   4.2923799   0.7983742  )
       217           Br  tau( 217) = (   1.7617155   4.2925459   0.7984967  )
       218           Br  tau( 218) = (   0.7275744   1.3966369   1.7967785  )
       219           Br  tau( 219) = (   2.7960162   4.2928644   0.7982206  )
       220           Br  tau( 220) = (   1.7621257   1.3970818   1.7965426  )
       221           Br  tau( 221) = (   2.7953894   1.3968556   1.7965949  )
       222           Br  tau( 222) = (   0.7276107   2.2228842   1.7969068  )
       223           Br  tau( 223) = (   1.7616230   0.7750977   0.7987898  )
       224           Br  tau( 224) = (   1.7619264   2.2224800   1.7964802  )
       225           Br  tau( 225) = (   2.7961748   0.7748513   0.7984283  )
       226           Br  tau( 226) = (   2.7953424   2.2230321   1.7967306  )
       227           Br  tau( 227) = (   0.7277271   2.2226487   0.7980403  )
       228           Br  tau( 228) = (   0.7278396   3.6710661   1.7965954  )
       229           Br  tau( 229) = (   1.7613357   2.2231140   0.7987806  )
       230           Br  tau( 230) = (   1.7618091   3.6707347   1.7966538  )
       231           Br  tau( 231) = (   2.7960915   2.2227376   0.7984014  )
       232           Br  tau( 232) = (   2.7955502   3.6708650   1.7966953  )
       233           Br  tau( 233) = (   0.7274834   3.6710169   0.7979774  )
       234           Br  tau( 234) = (   1.7616621   3.6710990   0.7986078  )
       235           Br  tau( 235) = (   0.7274299   0.7751363   1.7968157  )
       236           Br  tau( 236) = (   2.7961521   3.6707727   0.7982145  )
       237           Br  tau( 237) = (   1.7618785   0.7745697   1.7967263  )
       238           Br  tau( 238) = (   2.7954784   0.7747666   1.7965780  )
       239           Br  tau( 239) = (   0.8235209   1.4988263   1.2977816  )
       240           Br  tau( 240) = (   1.8576939   0.0515027   0.2994907  )
       241           Br  tau( 241) = (   1.8572963   1.4986795   1.2972568  )
       242           Br  tau( 242) = (   2.8914831   0.0511605   0.2988369  )
       243           Br  tau( 243) = (   2.8912090   1.4986671   1.2973672  )
       244           Br  tau( 244) = (   0.8232286   1.4987681   0.2989457  )
       245           Br  tau( 245) = (   0.8231914   2.9469485   1.2975616  )
       246           Br  tau( 246) = (   1.8576027   1.4988588   0.2994002  )
       247           Br  tau( 247) = (   1.8566890   2.9465678   1.2973423  )
       248           Br  tau( 248) = (   2.8915700   1.4990855   0.2992984  )
       249           Br  tau( 249) = (   2.8914184   2.9469788   1.2975267  )
       250           Br  tau( 250) = (   0.8231911   2.9468432   0.2991146  )
       251           Br  tau( 251) = (   1.8578844   2.9471284   0.2991367  )
       252           Br  tau( 252) = (   0.8235313   0.0511165   1.2976459  )
       253           Br  tau( 253) = (   2.8911914   2.9467137   0.2985473  )
       254           Br  tau( 254) = (   1.8569131   0.0509187   1.2972306  )
       255           Br  tau( 255) = (   2.8912336   0.0511042   1.2976266  )
       256           Br  tau( 256) = (   0.8232752   2.1208867   1.2976465  )
       257           Br  tau( 257) = (   1.8577288   0.6722884   0.2994246  )
       258           Br  tau( 258) = (   1.8570602   2.1210237   1.2973613  )
       259           Br  tau( 259) = (   2.8913648   0.6727788   0.2988740  )
       260           Br  tau( 260) = (   2.8912823   2.1212815   1.2974269  )
       261           Br  tau( 261) = (   0.8233203   2.1209050   0.2990350  )
       262           Br  tau( 262) = (   0.8233118   3.5690075   1.2977495  )
       263           Br  tau( 263) = (   1.8577384   2.1207942   0.2991859  )
       264           Br  tau( 264) = (   1.8569490   3.5690043   1.2973585  )
       265           Br  tau( 265) = (   2.8913834   2.1204610   0.2990561  )
       266           Br  tau( 266) = (   2.8914565   3.5686010   1.2976587  )
       267           Br  tau( 267) = (   0.8231124   3.5689929   0.2989122  )
       268           Br  tau( 268) = (   1.8578282   3.5686310   0.2994910  )
       269           Br  tau( 269) = (   0.8235793   0.6725991   1.2977042  )
       270           Br  tau( 270) = (   2.8914265   3.5690588   0.2986002  )
       271           Br  tau( 271) = (   1.8570182   0.6729839   1.2970575  )
       272           Br  tau( 272) = (   2.8911122   0.6726782   1.2972656  )
       273           Br  tau( 273) = (   0.3061278   1.4987881   1.1985581  )
       274           Br  tau( 274) = (   1.3402523   0.0508630   0.2004665  )
       275           Br  tau( 275) = (   1.3406059   1.4991258   1.1982591  )
       276           Br  tau( 276) = (   2.3741716   0.0511987   0.2001844  )
       277           Br  tau( 277) = (   2.3745292   1.4986797   1.1988291  )
       278           Br  tau( 278) = (   0.3066108   1.4989525   0.2002480  )
       279           Br  tau( 279) = (   0.3057324   2.9469132   1.1988244  )
       280           Br  tau( 280) = (   1.3402543   1.4984231   0.2005604  )
       281           Br  tau( 281) = (   1.3405347   2.9471314   1.1984634  )
       282           Br  tau( 282) = (   2.3743581   1.4989477   0.2002367  )
       283           Br  tau( 283) = (   2.3741991   2.9467242   1.1991340  )
       284           Br  tau( 284) = (   0.3066332   2.9468540   0.2004892  )
       285           Br  tau( 285) = (   1.3398969   2.9466278   0.2005415  )
       286           Br  tau( 286) = (   0.3060064   0.0508452   1.1988635  )
       287           Br  tau( 287) = (   2.3744482   2.9470727   0.2003056  )
       288           Br  tau( 288) = (   1.3403071   0.0511637   1.1985874  )
       289           Br  tau( 289) = (   2.3744542   0.0513297   1.1987099  )
       290           Br  tau( 290) = (   0.0122195   1.0860959   0.0673628  )
       291           Br  tau( 291) = (   0.5047567   0.3621654   0.5664680  )
       292           Br  tau( 292) = (   1.0220818   0.3621318   0.9317288  )
       293           Br  tau( 293) = (   0.5287833   1.0861883   0.4320178  )
       294           Br  tau( 294) = (   0.0117562   2.5336477   1.0658075  )
       295           Br  tau( 295) = (   1.0457709   1.0862148   0.0671136  )
       296           Br  tau( 296) = (   1.0464119   2.5337071   1.0654993  )
       297           Br  tau( 297) = (   2.0800066   1.0862911   0.0674676  )
       298           Br  tau( 298) = (   2.0798275   2.5336072   1.0652671  )
       299           Br  tau( 299) = (   0.0118450   2.5337967   0.0668844  )
       300           Br  tau( 300) = (   0.0121321   3.9815389   1.0657311  )
       301           Br  tau( 301) = (   1.0457139   2.5337634   0.0670482  )
       302           Br  tau( 302) = (   1.0462040   3.9815372   1.0660657  )
       303           Br  tau( 303) = (   2.0802409   2.5336258   0.0673457  )
       304           Br  tau( 304) = (   2.0799408   3.9815778   1.0653553  )
       305           Br  tau( 305) = (   0.0120699   3.9816619   0.0673492  )
       306           Br  tau( 306) = (   1.0457430   3.9814901   0.0672171  )
       307           Br  tau( 307) = (   0.0118270   1.0863508   1.0653310  )
       308           Br  tau( 308) = (   2.0802346   3.9815189   0.0676712  )
       309           Br  tau( 309) = (   1.0464051   1.0862660   1.0658699  )
       310           Br  tau( 310) = (   2.0798443   1.0862870   1.0653274  )
       311           Br  tau( 311) = (   0.5052389   1.8100131   1.5650802  )
       312           Br  tau( 312) = (   1.5394271   0.3621431   0.5669061  )
       313           Br  tau( 313) = (   1.5388173   1.8100265   1.5644160  )
       314           Br  tau( 314) = (   2.5727278   0.3621367   0.5664925  )
       315           Br  tau( 315) = (   2.5730847   1.8099503   1.5651010  )
       316           Br  tau( 316) = (   0.5051064   1.8100996   0.5661029  )
       317           Br  tau( 317) = (   0.5049428   3.2574568   1.5647038  )
       318           Br  tau( 318) = (   1.5390403   1.8099950   0.5667245  )
       319           Br  tau( 319) = (   1.5387847   3.2574817   1.5645718  )
       320           Br  tau( 320) = (   2.5730324   1.8100639   0.5660285  )
       321           Br  tau( 321) = (   2.5732393   3.2575213   1.5650663  )
       322           Br  tau( 322) = (   0.5052116   3.2573831   0.5665898  )
       323           Br  tau( 323) = (   1.5391513   3.2575008   0.5667874  )
       324           Br  tau( 324) = (   0.5049814   0.3621862   1.5650019  )
       325           Br  tau( 325) = (   2.5726621   3.2574091   0.5663836  )
       326           Br  tau( 326) = (   1.5386099   0.3620767   1.5648736  )
       327           Br  tau( 327) = (   2.5733233   0.3621947   1.5653381  )
       328           Br  tau( 328) = (   1.0217818   1.8100838   1.9297384  )
       329           Br  tau( 329) = (   2.0558186   0.3621724   0.9310184  )
       330           Br  tau( 330) = (   2.0563087   1.8099462   1.9300359  )
       331           Br  tau( 331) = (   3.0898905   0.3621707   0.9313530  )
       332           Br  tau( 332) = (   3.0901776   1.8099129   1.9301997  )
       333           Br  tau( 333) = (   1.0221951   1.8101024   0.9318170  )
       334           Br  tau( 334) = (   1.0220161   3.2574185   1.9296165  )
       335           Br  tau( 335) = (   2.0556108   1.8100025   0.9315848  )
       336           Br  tau( 336) = (   2.0562517   3.2574948   1.9299705  )
       337           Br  tau( 337) = (   3.0902664   1.8100619   0.9312766  )
       338           Br  tau( 338) = (   3.0898031   3.2576137   1.9297213  )
       339           Br  tau( 339) = (   1.0221783   3.2574226   0.9317567  )
       340           Br  tau( 340) = (   2.0556175   3.2574436   0.9312142  )
       341           Br  tau( 341) = (   1.0217880   0.3621907   1.9294129  )
       342           Br  tau( 342) = (   3.0901956   3.2573588   0.9317531  )
       343           Br  tau( 343) = (   2.0562796   0.3622195   1.9298670  )
       344           Br  tau( 344) = (   3.0899527   0.3620477   1.9297349  )
       345           Br  tau( 345) = (   0.5289902   2.5336457   1.4310556  )
       346           Br  tau( 346) = (   1.5632379   1.0862279   0.4325123  )
       347           Br  tau( 347) = (   1.5629823   2.5337146   1.4303596  )
       348           Br  tau( 348) = (   2.5970798   1.0862528   0.4323803  )
       349           Br  tau( 349) = (   2.5969162   2.5336100   1.4309812  )
       350           Br  tau( 350) = (   0.5289379   2.5337593   0.4319831  )
       351           Br  tau( 351) = (   0.5292948   3.9815729   1.4305916  )
       352           Br  tau( 352) = (   1.5632053   2.5336831   0.4326681  )
       353           Br  tau( 353) = (   1.5625955   3.9815665   1.4301780  )
       354           Br  tau( 354) = (   2.5967837   2.5336965   0.4320039  )
       355           Br  tau( 355) = (   2.5972659   3.9815442   1.4306160  )
       356           Br  tau( 356) = (   0.5286993   3.9815149   0.4317460  )
       357           Br  tau( 357) = (   1.5634127   3.9816329   0.4322104  )
       358           Br  tau( 358) = (   0.5293605   1.0863005   1.4307005  )
       359           Br  tau( 359) = (   2.5970413   3.9815234   0.4320822  )
       360           Br  tau( 360) = (   1.5628714   1.0862088   1.4302967  )
       361           Br  tau( 361) = (   2.5968110   1.0863265   1.4304943  )

   Crystallographic axes

     site n.     atom                  positions (cryst. coord.)
         1           Pb  tau(   1) = ( -0.0001227  0.1668055  0.0001469  )
         2           Pb  tau(   2) = (  0.1665766 -0.0000597  0.2501661  )
         3           Pb  tau(   3) = (  0.1664676  0.1669342  0.2500618  )
         4           Pb  tau(   4) = (  0.0000000  0.0000000  0.0000000  )
         5           Pb  tau(   5) = ( -0.0000000  0.5000000  0.5000000  )
         6           Pb  tau(   6) = (  0.3332315  0.1668360 -0.0000834  )
         7           Pb  tau(   7) = (  0.3332309  0.4999564  0.5300949  )
         8           Pb  tau(   8) = (  0.6668640  0.1668098  0.0000314  )
         9           Pb  tau(   9) = (  0.6667691  0.5000436  0.4999051  )
        10           Pb  tau(  10) = ( -0.0000000  0.5000000  0.0000000  )
        11           Pb  tau(  11) = (  0.0000691  0.8331694  0.4999868  )
        12           Pb  tau(  12) = (  0.3332125  0.5000207 -0.0000055  )
        13           Pb  tau(  13) = (  0.3331184  0.8331182  0.5000929  )
        14           Pb  tau(  14) = (  0.6667875  0.4999793  0.0000055  )
        15           Pb  tau(  15) = (  0.6667025  0.8331437  0.4998963  )
        16           Pb  tau(  16) = (  0.0001227  0.8331945 -0.0001469  )
        17           Pb  tau(  17) = (  0.3331360  0.8331902 -0.0000314  )
        18           Pb  tau(  18) = ( -0.0000691  0.1668306  0.5000132  )
        19           Pb  tau(  19) = (  0.6667685  0.8331640  0.0000834  )
        20           Pb  tau(  20) = (  0.3332975  0.1668563  0.5001037  )
        21           Pb  tau(  21) = (  0.6668816  0.1668818  0.4999070  )
        22           Pb  tau(  22) = (  0.1665459  0.3335519  0.7497934  )
        23           Pb  tau(  23) = (  0.5000153 -0.0000319  0.2502079  )
        24           Pb  tau(  24) = (  0.4999708  0.3335427  0.7497498  )
        25           Pb  tau(  25) = (  0.8334210  0.0000386  0.2501482  )
        26           Pb  tau(  26) = (  0.8334170  0.3335534  0.7498445  )
        27           Pb  tau(  27) = (  0.1665340  0.3335390  0.2502625  )
        28           Pb  tau(  28) = (  0.1665753  0.6665118  0.7496736  )
        29           Pb  tau(  29) = (  0.4999882  0.3335185  0.2503287  )
        30           Pb  tau(  30) = (  0.5000118  0.6664815  0.7496713  )
        31           Pb  tau(  31) = (  0.8334247  0.3334882  0.2503264  )
        32           Pb  tau(  32) = (  0.8334660  0.6664610  0.7497375  )
        33           Pb  tau(  33) = (  0.1665830  0.6664466  0.2501555  )
        34           Pb  tau(  34) = (  0.5000292  0.6664573  0.2502502  )
        35           Pb  tau(  35) = (  0.1665790 -0.0000386  0.7498518  )
        36           Pb  tau(  36) = (  0.8334541  0.6664481  0.2502066  )
        37           Pb  tau(  37) = (  0.4999847  0.0000319  0.7497921  )
        38           Pb  tau(  38) = (  0.8334234  0.0000597  0.7498339  )
        39           Pb  tau(  39) = (  0.1665276  0.5000103  0.7498265  )
        40           Pb  tau(  40) = (  0.5001350  0.1668149  0.2502049  )
        41           Pb  tau(  41) = (  0.4999868  0.4999634  0.7497101  )
        42           Pb  tau(  42) = (  0.8333571  0.1668633  0.2502263  )
        43           Pb  tau(  43) = (  0.8334586  0.5000692  0.7498383  )
        44           Pb  tau(  44) = (  0.1665414  0.4999308  0.2501617  )
        45           Pb  tau(  45) = (  0.1666429  0.8331367  0.7497737  )
        46           Pb  tau(  46) = (  0.5000132  0.5000366  0.2502899  )
        47           Pb  tau(  47) = (  0.4998650  0.8331851  0.7497951  )
        48           Pb  tau(  48) = (  0.8334724  0.4999897  0.2501735  )
        49           Pb  tau(  49) = (  0.8335324  0.8330658  0.7499382  )
        50           Pb  tau(  50) = (  0.1665706  0.8332168  0.2502754  )
        51           Pb  tau(  51) = (  0.4998869  0.8331707  0.2503835  )
        52           Pb  tau(  52) = (  0.1664546  0.1667687  0.7496599  )
        53           Pb  tau(  53) = (  0.8335454  0.8332313  0.2503401  )
        54           Pb  tau(  54) = (  0.5001131  0.1668293  0.7496165  )
        55           Pb  tau(  55) = (  0.8334294  0.1667832  0.7497246  )
        56           Pb  tau(  56) = (  0.0000299  0.3335080  0.4997439  )
        57           Pb  tau(  57) = (  0.3332356 -0.0000570 -0.0000350  )
        58           Pb  tau(  58) = (  0.3332090  0.3335842  0.4998774  )
        59           Pb  tau(  59) = (  0.6667644  0.0000570  0.0000350  )
        60           Pb  tau(  60) = (  0.6667159  0.3335011  0.4996694  )
        61           Pb  tau(  61) = (  0.0000366  0.3335434  0.0001584  )
        62           Pb  tau(  62) = ( -0.0000299  0.6664920  0.5002561  )
        63           Pb  tau(  63) = (  0.3331772  0.3335255  0.0000730  )
        64           Pb  tau(  64) = (  0.3332841  0.6664989  0.5003306  )
        65           Pb  tau(  65) = (  0.6667847  0.3335300  0.0001513  )
        66           Pb  tau(  66) = (  0.6667910  0.6664158  0.5001226  )
        67           Pb  tau(  67) = ( -0.0000366  0.6664566 -0.0001584  )
        68           Pb  tau(  68) = (  0.3332153  0.6664700 -0.0001513  )
        69           Pb  tau(  69) = ( -0.0000000  0.0000000  0.5000000  )
        70           Pb  tau(  70) = (  0.6668228  0.6664745 -0.0000730  )
        71           Pb  tau(  71) = (  0.3332760 -0.0000601  0.5001675  )
        72           Pb  tau(  72) = (  0.6667240  0.0000601  0.4998325  )
        73           Cs  tau(  73) = (  0.1862939  0.0832848  0.0087015  )
        74           Cs  tau(  74) = (  0.3137542  0.2499363  0.2586387  )
        75           Cs  tau(  75) = (  0.1471401  0.2499224  0.4914111  )
        76           Cs  tau(  76) = (  0.0196219  0.0833086  0.2413714  )
        77           Cs  tau(  77) = (  0.1861837  0.4166274  0.5085262  )
        78           Cs  tau(  78) = (  0.5196131  0.0832773  0.0086027  )
        79           Cs  tau(  79) = (  0.5194975  0.4166275  0.5084777  )
        80           Cs  tau(  80) = (  0.8529151  0.0832936  0.0086911  )
        81           Cs  tau(  81) = (  0.8528065  0.4166294  0.5086149  )
        82           Cs  tau(  82) = (  0.1862608  0.4166372  0.0086293  )
        83           Cs  tau(  83) = (  0.1862865  0.7500810  0.5085972  )
        84           Cs  tau(  84) = (  0.5195850  0.4166335  0.0086378  )
        85           Cs  tau(  85) = (  0.5195235  0.7500665  0.5085273  )
        86           Cs  tau(  86) = (  0.8528903  0.4166110  0.0085840  )
        87           Cs  tau(  87) = (  0.8528599  0.7500776  0.5085889  )
        88           Cs  tau(  88) = (  0.1862709  0.7500885  0.0086475  )
        89           Cs  tau(  89) = (  0.5196436  0.7500862  0.0086067  )
        90           Cs  tau(  90) = (  0.1863058  0.0833083  0.5085539  )
        91           Cs  tau(  91) = (  0.8529481  0.7500832  0.0086146  )
        92           Cs  tau(  92) = (  0.5195107  0.0832951  0.5086305  )
        93           Cs  tau(  93) = (  0.8528468  0.0832854  0.5085949  )
        94           Cs  tau(  94) = (  0.3138797  0.5833911  0.7585261  )
        95           Cs  tau(  95) = (  0.6470745  0.2499419  0.2584863  )
        96           Cs  tau(  96) = (  0.6471095  0.5833844  0.7586870  )
        97           Cs  tau(  97) = (  0.9804368  0.2499113  0.2585219  )
        98           Cs  tau(  98) = (  0.9804990  0.5833622  0.7586200  )
        99           Cs  tau(  99) = (  0.3137233  0.5833665  0.2585955  )
       100           Cs  tau( 100) = (  0.3138080  0.9166845  0.7585634  )
       101           Cs  tau( 101) = (  0.6470913  0.5833737  0.2584536  )
       102           Cs  tau( 102) = (  0.6470306  0.9167109  0.7587544  )
       103           Cs  tau( 103) = (  0.9804481  0.5833946  0.2586120  )
       104           Cs  tau( 104) = (  0.9803781  0.9166914  0.7586286  )
       105           Cs  tau( 105) = (  0.3137621  0.9166908  0.2586764  )
       106           Cs  tau( 106) = (  0.6470367  0.9166814  0.2584823  )
       107           Cs  tau( 107) = (  0.3138519  0.2499207  0.7585254  )
       108           Cs  tau( 108) = (  0.9803761  0.9166941  0.2586551  )
       109           Cs  tau( 109) = (  0.6470667  0.2499087  0.7587050  )
       110           Cs  tau( 110) = (  0.9804193  0.2499530  0.7587152  )
       111           Cs  tau( 111) = (  0.1471097  0.5833890  0.9914160  )
       112           Cs  tau( 112) = (  0.4804765  0.2499335  0.4914727  )
       113           Cs  tau( 113) = (  0.4804150  0.5833665  0.9913622  )
       114           Cs  tau( 114) = (  0.8137135  0.2499190  0.4914028  )
       115           Cs  tau( 115) = (  0.8137392  0.5833628  0.9913707  )
       116           Cs  tau( 116) = (  0.1471935  0.5833706  0.4913851  )
       117           Cs  tau( 117) = (  0.1470849  0.9167064  0.9913089  )
       118           Cs  tau( 118) = (  0.4805025  0.5833725  0.4915223  )
       119           Cs  tau( 119) = (  0.4803869  0.9167227  0.9913973  )
       120           Cs  tau( 120) = (  0.8138163  0.5833726  0.4914738  )
       121           Cs  tau( 121) = (  0.8137061  0.9167152  0.9912985  )
       122           Cs  tau( 122) = (  0.1471532  0.9167146  0.4914051  )
       123           Cs  tau( 123) = (  0.4804893  0.9167049  0.4913695  )
       124           Cs  tau( 124) = (  0.1470519  0.2499168  0.9913854  )
       125           Cs  tau( 125) = (  0.8136942  0.9166917  0.4914461  )
       126           Cs  tau( 126) = (  0.4803564  0.2499138  0.9913933  )
       127           Cs  tau( 127) = (  0.8137291  0.2499115  0.9913525  )
       128           Cs  tau( 128) = (  0.0195519  0.4166054  0.7413880  )
       129           Cs  tau( 129) = (  0.3529694  0.0832891  0.2412456  )
       130           Cs  tau( 130) = (  0.3529087  0.4166263  0.7415464  )
       131           Cs  tau( 131) = (  0.6861920  0.0833155  0.2414366  )
       132           Cs  tau( 132) = (  0.6862767  0.4166335  0.7414045  )
       133           Cs  tau( 133) = (  0.0195010  0.4166378  0.2413800  )
       134           Cs  tau( 134) = (  0.0195632  0.7500887  0.7414781  )
       135           Cs  tau( 135) = (  0.3528905  0.4166156  0.2413130  )
       136           Cs  tau( 136) = (  0.3529255  0.7500581  0.7415137  )
       137           Cs  tau( 137) = (  0.6861203  0.4166089  0.2414739  )
       138           Cs  tau( 138) = (  0.6862458  0.7500637  0.7413613  )
       139           Cs  tau( 139) = (  0.0195807  0.7500470  0.2412848  )
       140           Cs  tau( 140) = (  0.3529333  0.7500913  0.2412950  )
       141           Cs  tau( 141) = (  0.0196239  0.0833059  0.7413449  )
       142           Cs  tau( 142) = (  0.6861481  0.7500793  0.2414746  )
       143           Cs  tau( 143) = (  0.3529633  0.0833186  0.7415177  )
       144           Cs  tau( 144) = (  0.6862379  0.0833092  0.7413236  )
       145           Br  tau( 145) = (  0.3332309  0.4999564  0.4700949  )
       146           Br  tau( 146) = (  0.0987976  0.1549009  0.1003407  )
       147           Br  tau( 147) = (  0.0678922  0.3215526  0.3502899  )
       148           Br  tau( 148) = (  0.0678800  0.1784440  0.3502237  )
       149           Br  tau( 149) = (  0.2346285  0.3216112  0.3995578  )
       150           Br  tau( 150) = (  0.2345226  0.1783968  0.3997319  )
       151           Br  tau( 151) = (  0.2652884  0.0116727  0.1495684  )
       152           Br  tau( 152) = (  0.2652446  0.1549623  0.1497097  )
       153           Br  tau( 153) = (  0.0988575  0.0117421  0.1004006  )
       154           Br  tau( 154) = (  0.0986226  0.4882860  0.6002173  )
       155           Br  tau( 155) = (  0.4320454  0.1549309  0.1003609  )
       156           Br  tau( 156) = (  0.4321975  0.4881992  0.6000268  )
       157           Br  tau( 157) = (  0.7653668  0.1548545  0.1003895  )
       158           Br  tau( 158) = (  0.7654026  0.4883063  0.6003969  )
       159           Br  tau( 159) = (  0.0988645  0.4882181  0.1003232  )
       160           Br  tau( 160) = (  0.0985956  0.8216154  0.6002040  )
       161           Br  tau( 161) = (  0.4320075  0.4883451  0.1004480  )
       162           Br  tau( 162) = (  0.4321048  0.8215586  0.6000224  )
       163           Br  tau( 163) = (  0.7654405  0.4882520  0.1002338  )
       164           Br  tau( 164) = (  0.7654774  0.8216032  0.6002681  )
       165           Br  tau( 165) = (  0.0988205  0.8216348  0.1003999  )
       166           Br  tau( 166) = (  0.4320228  0.8216801  0.1003250  )
       167           Br  tau( 167) = (  0.0986032  0.1549222  0.6003107  )
       168           Br  tau( 168) = (  0.7654987  0.8215496  0.1002796  )
       169           Br  tau( 169) = (  0.4320924  0.1548471  0.6001131  )
       170           Br  tau( 170) = (  0.7654813  0.1548659  0.6004282  )
       171           Br  tau( 171) = (  0.0678429  0.6548837  0.8501336  )
       172           Br  tau( 172) = (  0.4014586  0.3216471  0.3503816  )
       173           Br  tau( 173) = (  0.4011636  0.6549358  0.8500821  )
       174           Br  tau( 174) = (  0.7346280  0.3215594  0.3502712  )
       175           Br  tau( 175) = (  0.7346155  0.6549567  0.8503090  )
       176           Br  tau( 176) = (  0.0679596  0.6549800  0.3503700  )
       177           Br  tau( 177) = (  0.0678708  0.9882221  0.8503649  )
       178           Br  tau( 178) = (  0.4012628  0.6549771  0.3504246  )
       179           Br  tau( 179) = (  0.4011341  0.9881432  0.8500369  )
       180           Br  tau( 180) = (  0.7345216  0.6549432  0.3501612  )
       181           Br  tau( 181) = (  0.7347116  0.9883273  0.8504316  )
       182           Br  tau( 182) = (  0.0679516  0.9882350  0.3502403  )
       183           Br  tau( 183) = (  0.4013862  0.9882776  0.3504380  )
       184           Br  tau( 184) = (  0.0679650  0.3216137  0.8505095  )
       185           Br  tau( 185) = (  0.7345182  0.9882320  0.3502294  )
       186           Br  tau( 186) = (  0.4010729  0.3215181  0.8502138  )
       187           Br  tau( 187) = (  0.7346277  0.3215837  0.8502243  )
       188           Br  tau( 188) = (  0.0679031  0.5118319  0.8502549  )
       189           Br  tau( 189) = (  0.4013749  0.1783511  0.3503734  )
       190           Br  tau( 190) = (  0.4011199  0.5117551  0.8501893  )
       191           Br  tau( 191) = (  0.7345892  0.1783503  0.3501770  )
       192           Br  tau( 192) = (  0.7345860  0.5117296  0.8502642  )
       193           Br  tau( 193) = (  0.0679360  0.5116430  0.3503400  )
       194           Br  tau( 194) = (  0.0679090  0.8451144  0.8503462  )
       195           Br  tau( 195) = (  0.4013389  0.5117022  0.3503722  )
       196           Br  tau( 196) = (  0.4011229  0.8452272  0.8500699  )
       197           Br  tau( 197) = (  0.7346009  0.5117337  0.3502288  )
       198           Br  tau( 198) = (  0.7347554  0.8450377  0.8502903  )
       199           Br  tau( 199) = (  0.0679908  0.8451375  0.3504210  )
       200           Br  tau( 200) = (  0.4013523  0.8450670  0.3505245  )
       201           Br  tau( 201) = (  0.0678893  0.1783386  0.8504830  )
       202           Br  tau( 202) = (  0.7345027  0.8451556  0.3502001  )
       203           Br  tau( 203) = (  0.4010911  0.1784371  0.8500363  )
       204           Br  tau( 204) = (  0.7346531  0.1783537  0.8503255  )
       205           Br  tau( 205) = (  0.2345768  0.6549154  0.8997365  )
       206           Br  tau( 206) = (  0.5678516  0.3215174  0.3998930  )
       207           Br  tau( 207) = (  0.5679415  0.6550361  0.8995738  )
       208           Br  tau( 208) = (  0.9014415  0.3215675  0.3997116  )
       209           Br  tau( 209) = (  0.9011579  0.6549142  0.8997296  )
       210           Br  tau( 210) = (  0.2345220  0.6549771  0.3997107  )
       211           Br  tau( 211) = (  0.2346368  0.9882133  0.8997630  )
       212           Br  tau( 212) = (  0.5678285  0.6548743  0.3999955  )
       213           Br  tau( 213) = (  0.5679421  0.9882905  0.8996210  )
       214           Br  tau( 214) = (  0.9013140  0.6549520  0.3998452  )
       215           Br  tau( 215) = (  0.9011425  0.9882579  0.8995994  )
       216           Br  tau( 216) = (  0.2345461  0.9881830  0.3997706  )
       217           Br  tau( 217) = (  0.5679248  0.9882212  0.3998313  )
       218           Br  tau( 218) = (  0.2345479  0.3215310  0.8997019  )
       219           Br  tau( 219) = (  0.9013530  0.9882945  0.3996924  )
       220           Br  tau( 220) = (  0.5680568  0.3216334  0.8995831  )
       221           Br  tau( 221) = (  0.9011508  0.3215812  0.8996087  )
       222           Br  tau( 222) = (  0.2345595  0.5117480  0.8997662  )
       223           Br  tau( 223) = (  0.5678952  0.1784414  0.3999776  )
       224           Br  tau( 224) = (  0.5679925  0.5116549  0.8995520  )
       225           Br  tau( 225) = (  0.9014044  0.1783846  0.3997960  )
       226           Br  tau( 226) = (  0.9011355  0.5117819  0.8996768  )
       227           Br  tau( 227) = (  0.2345974  0.5116937  0.3996031  )
       228           Br  tau( 228) = (  0.2346332  0.8451455  0.8996105  )
       229           Br  tau( 229) = (  0.5678025  0.5118008  0.3999732  )
       230           Br  tau( 230) = (  0.5679546  0.8450691  0.8996391  )
       231           Br  tau( 231) = (  0.9013774  0.5117140  0.3997827  )
       232           Br  tau( 232) = (  0.9012024  0.8450991  0.8996593  )
       233           Br  tau( 233) = (  0.2345187  0.8451341  0.3995718  )
       234           Br  tau( 234) = (  0.5679076  0.8451529  0.3998869  )
       235           Br  tau( 235) = (  0.2345013  0.1784504  0.8997204  )
       236           Br  tau( 236) = (  0.9013968  0.8450778  0.3996893  )
       237           Br  tau( 237) = (  0.5679772  0.1783199  0.8996750  )
       238           Br  tau( 238) = (  0.9011795  0.1783652  0.8996001  )
       239           Br  tau( 239) = (  0.2654784  0.3450568  0.6498388  )
       240           Br  tau( 240) = (  0.5988659  0.0118568  0.1499631  )
       241           Br  tau( 241) = (  0.5987372  0.3450229  0.6495754  )
       242           Br  tau( 242) = (  0.9321292  0.0117779  0.1496351  )
       243           Br  tau( 243) = (  0.9320404  0.3450200  0.6496300  )
       244           Br  tau( 244) = (  0.2653845  0.3450433  0.1496910  )
       245           Br  tau( 245) = (  0.2653720  0.6784406  0.6497288  )
       246           Br  tau( 246) = (  0.5988364  0.3450642  0.1499179  )
       247           Br  tau( 247) = (  0.5985414  0.6783529  0.6496184  )
       248           Br  tau( 248) = (  0.9321571  0.3451163  0.1498664  )
       249           Br  tau( 249) = (  0.9321078  0.6784474  0.6497101  )
       250           Br  tau( 250) = (  0.2653723  0.6784163  0.1497757  )
       251           Br  tau( 251) = (  0.5989271  0.6784819  0.1497862  )
       252           Br  tau( 252) = (  0.2654818  0.0117680  0.6497706  )
       253           Br  tau( 253) = (  0.9320350  0.6783863  0.1494905  )
       254           Br  tau( 254) = (  0.5986138  0.0117224  0.6495620  )
       255           Br  tau( 255) = (  0.9320484  0.0117650  0.6497597  )
       256           Br  tau( 256) = (  0.2653991  0.4882663  0.6497712  )
       257           Br  tau( 257) = (  0.5988771  0.1547728  0.1499301  )
       258           Br  tau( 258) = (  0.5986611  0.4882978  0.6496278  )
       259           Br  tau( 259) = (  0.9320910  0.1548856  0.1496538  )
       260           Br  tau( 260) = (  0.9320640  0.4883570  0.6496600  )
       261           Br  tau( 261) = (  0.2654140  0.4882704  0.1497358  )
       262           Br  tau( 262) = (  0.2654108  0.8216497  0.6498230  )
       263           Br  tau( 263) = (  0.5988801  0.4882449  0.1498107  )
       264           Br  tau( 264) = (  0.5986251  0.8216489  0.6496266  )
       265           Br  tau( 265) = (  0.9320969  0.4881681  0.1497451  )
       266           Br  tau( 266) = (  0.9321200  0.8215560  0.6497763  )
       267           Br  tau( 267) = (  0.2653469  0.8216463  0.1496745  )
       268           Br  tau( 268) = (  0.5989089  0.8215629  0.1499637  )
       269           Br  tau( 269) = (  0.2654973  0.1548444  0.6497999  )
       270           Br  tau( 270) = (  0.9321107  0.8216614  0.1495170  )
       271           Br  tau( 271) = (  0.5986477  0.1549330  0.6494755  )
       272           Br  tau( 272) = (  0.9320092  0.1548625  0.6495790  )
       273           Br  tau( 273) = (  0.0986860  0.3450480  0.6001548  )
       274           Br  tau( 274) = (  0.4320579  0.0117095  0.1003790  )
       275           Br  tau( 275) = (  0.4321715  0.3451257  0.6000045  )
       276           Br  tau( 276) = (  0.7653632  0.0117867  0.1002370  )
       277           Br  tau( 277) = (  0.7654780  0.3450229  0.6002893  )
       278           Br  tau( 278) = (  0.0988421  0.3450858  0.1002704  )
       279           Br  tau( 279) = (  0.0985585  0.6784325  0.6002884  )
       280           Br  tau( 280) = (  0.4320585  0.3449639  0.1004262  )
       281           Br  tau( 281) = (  0.4321484  0.6784826  0.6001070  )
       282           Br  tau( 282) = (  0.7654232  0.3450846  0.1002635  )
       283           Br  tau( 283) = (  0.7653715  0.6783888  0.6004422  )
       284           Br  tau( 284) = (  0.0988492  0.6784188  0.1003913  )
       285           Br  tau( 285) = (  0.4319432  0.6783666  0.1004169  )
       286           Br  tau( 286) = (  0.0986470  0.0117055  0.6003076  )
       287           Br  tau( 287) = (  0.7654521  0.6784690  0.1002981  )
       288           Br  tau( 288) = (  0.4320752  0.0117788  0.6001687  )
       289           Br  tau( 289) = (  0.7654539  0.0118170  0.6002294  )
       290           Br  tau( 290) = (  0.0039391  0.2500388  0.0337307  )
       291           Br  tau( 291) = (  0.1627185  0.0833770  0.2836477  )
       292           Br  tau( 292) = (  0.3294888  0.0833692  0.4665446  )
       293           Br  tau( 293) = (  0.1704640  0.2500601  0.2163244  )
       294           Br  tau( 294) = (  0.0037892  0.5832913  0.5336829  )
       295           Br  tau( 295) = (  0.3371258  0.2500661  0.0336054  )
       296           Br  tau( 296) = (  0.3373319  0.5833049  0.5335279  )
       297           Br  tau( 297) = (  0.6705330  0.2500836  0.0337820  )
       298           Br  tau( 298) = (  0.6704748  0.5832819  0.5334110  )
       299           Br  tau( 299) = (  0.0038182  0.5833256  0.0334914  )
       300           Br  tau( 300) = (  0.0039103  0.9166219  0.5336448  )
       301           Br  tau( 301) = (  0.3371073  0.5833178  0.0335728  )
       302           Br  tau( 302) = (  0.3372647  0.9166215  0.5338117  )
       303           Br  tau( 303) = (  0.6706084  0.5832861  0.0337212  )
       304           Br  tau( 304) = (  0.6705112  0.9166308  0.5334554  )
       305           Br  tau( 305) = (  0.0038906  0.9166502  0.0337243  )
       306           Br  tau( 306) = (  0.3371165  0.9166106  0.0336576  )
       307           Br  tau( 307) = (  0.0038122  0.2500976  0.5334440  )
       308           Br  tau( 308) = (  0.6706063  0.9166171  0.0338843  )
       309           Br  tau( 309) = (  0.3373298  0.2500780  0.5337133  )
       310           Br  tau( 310) = (  0.6704803  0.2500828  0.5334410  )
       311           Br  tau( 311) = (  0.1628735  0.4166976  0.7836836  )
       312           Br  tau( 312) = (  0.4962659  0.0833718  0.2838664  )
       313           Br  tau( 313) = (  0.4960688  0.4167007  0.7833504  )
       314           Br  tau( 314) = (  0.8293717  0.0833703  0.2836587  )
       315           Br  tau( 315) = (  0.8294863  0.4166831  0.7836928  )
       316           Br  tau( 316) = (  0.1628311  0.4167175  0.2834650  )
       317           Br  tau( 317) = (  0.1627779  0.7499252  0.7834953  )
       318           Br  tau( 318) = (  0.4961411  0.4166933  0.2837757  )
       319           Br  tau( 319) = (  0.4960582  0.7499309  0.7834286  )
       320           Br  tau( 320) = (  0.8294698  0.4167092  0.2834265  )
       321           Br  tau( 321) = (  0.8295360  0.7499399  0.7836756  )
       322           Br  tau( 322) = (  0.1628649  0.7499082  0.2837090  )
       323           Br  tau( 323) = (  0.4961767  0.7499352  0.2838074  )
       324           Br  tau( 324) = (  0.1627906  0.0833818  0.7836442  )
       325           Br  tau( 325) = (  0.8293503  0.7499140  0.2836045  )
       326           Br  tau( 326) = (  0.4960021  0.0833566  0.7835794  )
       327           Br  tau( 327) = (  0.8295633  0.0833837  0.7838113  )
       328           Br  tau( 328) = (  0.3293916  0.4167139  0.9662788  )
       329           Br  tau( 329) = (  0.6627353  0.0833785  0.4661883  )
       330           Br  tau( 330) = (  0.6628927  0.4166822  0.9664272  )
       331           Br  tau( 331) = (  0.9960897  0.0833781  0.4663552  )
       332           Br  tau( 332) = (  0.9961818  0.4166744  0.9665086  )
       333           Br  tau( 333) = (  0.3295252  0.4167181  0.4665890  )
       334           Br  tau( 334) = (  0.3294670  0.7499164  0.9662180  )
       335           Br  tau( 335) = (  0.6626681  0.4166951  0.4664721  )
       336           Br  tau( 336) = (  0.6628742  0.7499339  0.9663946  )
       337           Br  tau( 337) = (  0.9962108  0.4167087  0.4663171  )
       338           Br  tau( 338) = (  0.9960609  0.7499612  0.9662693  )
       339           Br  tau( 339) = (  0.3295197  0.7499172  0.4665590  )
       340           Br  tau( 340) = (  0.6626702  0.7499220  0.4662867  )
       341           Br  tau( 341) = (  0.3293937  0.0833829  0.9661157  )
       342           Br  tau( 342) = (  0.9961878  0.7499024  0.4665560  )
       343           Br  tau( 343) = (  0.6628835  0.0833894  0.9663424  )
       344           Br  tau( 344) = (  0.9961094  0.0833498  0.9662757  )
       345           Br  tau( 345) = (  0.1705302  0.5832908  0.7165735  )
       346           Br  tau( 346) = (  0.5039418  0.2500691  0.2165714  )
       347           Br  tau( 347) = (  0.5038589  0.5833067  0.7162243  )
       348           Br  tau( 348) = (  0.8372221  0.2500748  0.2165047  )
       349           Br  tau( 349) = (  0.8371689  0.5832825  0.7165350  )
       350           Br  tau( 350) = (  0.1705137  0.5833169  0.2163072  )
       351           Br  tau( 351) = (  0.1706283  0.9166297  0.7163413  )
       352           Br  tau( 352) = (  0.5039312  0.5832993  0.2166496  )
       353           Br  tau( 353) = (  0.5037341  0.9166282  0.7161336  )
       354           Br  tau( 354) = (  0.8371265  0.5833024  0.2163164  )
       355           Br  tau( 355) = (  0.8372815  0.9166230  0.7163523  )
       356           Br  tau( 356) = (  0.1704367  0.9166163  0.2161887  )
       357           Br  tau( 357) = (  0.5039979  0.9166434  0.2164206  )
       358           Br  tau( 358) = (  0.1706497  0.2500860  0.7163955  )
       359           Br  tau( 359) = (  0.8372094  0.9166182  0.2163558  )
       360           Br  tau( 360) = (  0.5038233  0.2500648  0.7161926  )
       361           Br  tau( 361) = (  0.8371351  0.2500918  0.7162910  )

     number of k points=     1  Marzari-Vanderbilt smearing, width (Ry)=  0.0147
                       cart. coord. in units 2pi/alat
        k(    1) = (   0.0000000   0.0000000   0.0000000), wk =   2.0000000

                       cryst. coord.
        k(    1) = (   0.0000000   0.0000000   0.0000000), wk =   2.0000000

     Dense  grid:  6872498 G-vectors     FFT dimensions: ( 320, 432, 200)

     Smooth grid:  1738755 G-vectors     FFT dimensions: ( 200, 288, 125)

     Dynamical RAM for                 wfc:      43.89 MB

     Dynamical RAM for     wfc (w. buffer):      43.89 MB

     Dynamical RAM for           str. fact:       2.18 MB

     Dynamical RAM for           local pot:       0.00 MB

     Dynamical RAM for          nlocal pot:     149.62 MB

     Dynamical RAM for                qrad:       4.82 MB

     Dynamical RAM for          rho,v,vnew:       8.51 MB

     Dynamical RAM for               rhoin:       2.84 MB

     Dynamical RAM for            rho*nmix:      11.65 MB

     Dynamical RAM for           G-vectors:       2.82 MB

     Dynamical RAM for          h,s,v(r/c):       2.30 MB

     Dynamical RAM for          <psi|beta>:      94.49 MB

     Dynamical RAM for                 psi:      87.77 MB

     Dynamical RAM for                hpsi:      87.77 MB

     Dynamical RAM for                spsi:      87.77 MB

     Dynamical RAM for      wfcinit/wfcrot:     250.55 MB

     Dynamical RAM for           addusdens:     293.47 MB

     Dynamical RAM for          addusforce:     609.28 MB

     Estimated static dynamical RAM per process >     228.14 MB

     Estimated max dynamical RAM per process >     849.07 MB

     Estimated total dynamical RAM >     119.40 GB

     Initial potential from superposition of free atoms

     starting charge    3171.9906, renormalised to    3175.0000

     negative rho (up, down):  1.154E+00 0.000E+00
     Starting wfcs are 2452 randomized atomic wfcs

     total cpu time spent up to now is       26.7 secs

     Self-consistent Calculation

     iteration #  1     ecut=    40.00 Ry     beta= 0.40
     Davidson diagonalization with overlap

---- Real-time Memory Report at c_bands before calling an iterative solver
             0 MiB given to the printing process from OS
             0 MiB allocation reported by mallinfo(arena+hblkhd)
        140571 MiB available memory on the node where the printing process lives
------------------

===================================================================================
=   BAD TERMINATION OF ONE OF YOUR APPLICATION PROCESSES
=   RANK 48 PID 2225677 RUNNING AT c548
=   KILLED BY SIGNAL: 9 (Killed)
===================================================================================

===================================================================================
=   BAD TERMINATION OF ONE OF YOUR APPLICATION PROCESSES
=   RANK 49 PID 2225678 RUNNING AT c548
=   KILLED BY SIGNAL: 9 (Killed)
===================================================================================

===================================================================================
=   BAD TERMINATION OF ONE OF YOUR APPLICATION PROCESSES
=   RANK 50 PID 2225679 RUNNING AT c548
=   KILLED BY SIGNAL: 9 (Killed)
===================================================================================

===================================================================================
=   BAD TERMINATION OF ONE OF YOUR APPLICATION PROCESSES
=   RANK 51 PID 2225680 RUNNING AT c548
=   KILLED BY SIGNAL: 9 (Killed)
===================================================================================

===================================================================================
=   BAD TERMINATION OF ONE OF YOUR APPLICATION PROCESSES
=   RANK 52 PID 2225681 RUNNING AT c548
=   KILLED BY SIGNAL: 9 (Killed)
===================================================================================

===================================================================================
=   BAD TERMINATION OF ONE OF YOUR APPLICATION PROCESSES
=   RANK 53 PID 2225682 RUNNING AT c548
=   KILLED BY SIGNAL: 9 (Killed)
===================================================================================

===================================================================================
=   BAD TERMINATION OF ONE OF YOUR APPLICATION PROCESSES
=   RANK 54 PID 2225683 RUNNING AT c548
=   KILLED BY SIGNAL: 9 (Killed)
===================================================================================

===================================================================================
=   BAD TERMINATION OF ONE OF YOUR APPLICATION PROCESSES
=   RANK 55 PID 2225684 RUNNING AT c548
=   KILLED BY SIGNAL: 9 (Killed)
===================================================================================

===================================================================================
=   BAD TERMINATION OF ONE OF YOUR APPLICATION PROCESSES
=   RANK 56 PID 2225685 RUNNING AT c548
=   KILLED BY SIGNAL: 9 (Killed)
===================================================================================

===================================================================================
=   BAD TERMINATION OF ONE OF YOUR APPLICATION PROCESSES
=   RANK 57 PID 2225686 RUNNING AT c548
=   KILLED BY SIGNAL: 9 (Killed)
===================================================================================

===================================================================================
=   BAD TERMINATION OF ONE OF YOUR APPLICATION PROCESSES
=   RANK 58 PID 2225687 RUNNING AT c548
=   KILLED BY SIGNAL: 9 (Killed)
===================================================================================

===================================================================================
=   BAD TERMINATION OF ONE OF YOUR APPLICATION PROCESSES
=   RANK 59 PID 2225688 RUNNING AT c548
=   KILLED BY SIGNAL: 9 (Killed)
===================================================================================

===================================================================================
=   BAD TERMINATION OF ONE OF YOUR APPLICATION PROCESSES
=   RANK 60 PID 2225689 RUNNING AT c548
=   KILLED BY SIGNAL: 9 (Killed)
===================================================================================

===================================================================================
=   BAD TERMINATION OF ONE OF YOUR APPLICATION PROCESSES
=   RANK 61 PID 2225690 RUNNING AT c548
=   KILLED BY SIGNAL: 9 (Killed)
===================================================================================

===================================================================================
=   BAD TERMINATION OF ONE OF YOUR APPLICATION PROCESSES
=   RANK 62 PID 2225691 RUNNING AT c548
=   KILLED BY SIGNAL: 9 (Killed)
===================================================================================

===================================================================================
=   BAD TERMINATION OF ONE OF YOUR APPLICATION PROCESSES
=   RANK 63 PID 2225692 RUNNING AT c548
=   KILLED BY SIGNAL: 9 (Killed)
===================================================================================

===================================================================================
=   BAD TERMINATION OF ONE OF YOUR APPLICATION PROCESSES
=   RANK 64 PID 2225693 RUNNING AT c548
=   KILLED BY SIGNAL: 9 (Killed)
===================================================================================

===================================================================================
=   BAD TERMINATION OF ONE OF YOUR APPLICATION PROCESSES
=   RANK 65 PID 2225694 RUNNING AT c548
=   KILLED BY SIGNAL: 9 (Killed)
===================================================================================

===================================================================================
=   BAD TERMINATION OF ONE OF YOUR APPLICATION PROCESSES
=   RANK 66 PID 2225695 RUNNING AT c548
=   KILLED BY SIGNAL: 9 (Killed)
===================================================================================

===================================================================================
=   BAD TERMINATION OF ONE OF YOUR APPLICATION PROCESSES
=   RANK 67 PID 2225696 RUNNING AT c548
=   KILLED BY SIGNAL: 9 (Killed)
===================================================================================

===================================================================================
=   BAD TERMINATION OF ONE OF YOUR APPLICATION PROCESSES
=   RANK 68 PID 2225697 RUNNING AT c548
=   KILLED BY SIGNAL: 9 (Killed)
===================================================================================

===================================================================================
=   BAD TERMINATION OF ONE OF YOUR APPLICATION PROCESSES
=   RANK 69 PID 2225698 RUNNING AT c548
=   KILLED BY SIGNAL: 9 (Killed)
===================================================================================

===================================================================================
=   BAD TERMINATION OF ONE OF YOUR APPLICATION PROCESSES
=   RANK 70 PID 2225699 RUNNING AT c548
=   KILLED BY SIGNAL: 9 (Killed)
===================================================================================

===================================================================================
=   BAD TERMINATION OF ONE OF YOUR APPLICATION PROCESSES
=   RANK 71 PID 2225700 RUNNING AT c548
=   KILLED BY SIGNAL: 9 (Killed)
===================================================================================

===================================================================================
=   BAD TERMINATION OF ONE OF YOUR APPLICATION PROCESSES
=   RANK 72 PID 2225701 RUNNING AT c548
=   KILLED BY SIGNAL: 9 (Killed)
===================================================================================

===================================================================================
=   BAD TERMINATION OF ONE OF YOUR APPLICATION PROCESSES
=   RANK 73 PID 2225702 RUNNING AT c548
=   KILLED BY SIGNAL: 9 (Killed)
===================================================================================

===================================================================================
=   BAD TERMINATION OF ONE OF YOUR APPLICATION PROCESSES
=   RANK 74 PID 2225703 RUNNING AT c548
=   KILLED BY SIGNAL: 9 (Killed)
===================================================================================

===================================================================================
=   BAD TERMINATION OF ONE OF YOUR APPLICATION PROCESSES
=   RANK 75 PID 2225704 RUNNING AT c548
=   KILLED BY SIGNAL: 9 (Killed)
===================================================================================

===================================================================================
=   BAD TERMINATION OF ONE OF YOUR APPLICATION PROCESSES
=   RANK 76 PID 2225705 RUNNING AT c548
=   KILLED BY SIGNAL: 9 (Killed)
===================================================================================

===================================================================================
=   BAD TERMINATION OF ONE OF YOUR APPLICATION PROCESSES
=   RANK 77 PID 2225706 RUNNING AT c548
=   KILLED BY SIGNAL: 9 (Killed)
===================================================================================

===================================================================================
=   BAD TERMINATION OF ONE OF YOUR APPLICATION PROCESSES
=   RANK 78 PID 2225707 RUNNING AT c548
=   KILLED BY SIGNAL: 9 (Killed)
===================================================================================

===================================================================================
=   BAD TERMINATION OF ONE OF YOUR APPLICATION PROCESSES
=   RANK 79 PID 2225708 RUNNING AT c548
=   KILLED BY SIGNAL: 9 (Killed)
===================================================================================

===================================================================================
=   BAD TERMINATION OF ONE OF YOUR APPLICATION PROCESSES
=   RANK 80 PID 2225709 RUNNING AT c548
=   KILLED BY SIGNAL: 9 (Killed)
===================================================================================

===================================================================================
=   BAD TERMINATION OF ONE OF YOUR APPLICATION PROCESSES
=   RANK 81 PID 2225710 RUNNING AT c548
=   KILLED BY SIGNAL: 9 (Killed)
===================================================================================

===================================================================================
=   BAD TERMINATION OF ONE OF YOUR APPLICATION PROCESSES
=   RANK 82 PID 2225711 RUNNING AT c548
=   KILLED BY SIGNAL: 9 (Killed)
===================================================================================

===================================================================================
=   BAD TERMINATION OF ONE OF YOUR APPLICATION PROCESSES
=   RANK 83 PID 2225712 RUNNING AT c548
=   KILLED BY SIGNAL: 9 (Killed)
===================================================================================

===================================================================================
=   BAD TERMINATION OF ONE OF YOUR APPLICATION PROCESSES
=   RANK 84 PID 2225713 RUNNING AT c548
=   KILLED BY SIGNAL: 9 (Killed)
===================================================================================

===================================================================================
=   BAD TERMINATION OF ONE OF YOUR APPLICATION PROCESSES
=   RANK 85 PID 2225714 RUNNING AT c548
=   KILLED BY SIGNAL: 9 (Killed)
===================================================================================

===================================================================================
=   BAD TERMINATION OF ONE OF YOUR APPLICATION PROCESSES
=   RANK 86 PID 2225715 RUNNING AT c548
=   KILLED BY SIGNAL: 9 (Killed)
===================================================================================

===================================================================================
=   BAD TERMINATION OF ONE OF YOUR APPLICATION PROCESSES
=   RANK 87 PID 2225716 RUNNING AT c548
=   KILLED BY SIGNAL: 9 (Killed)
===================================================================================

===================================================================================
=   BAD TERMINATION OF ONE OF YOUR APPLICATION PROCESSES
=   RANK 88 PID 2225717 RUNNING AT c548
=   KILLED BY SIGNAL: 9 (Killed)
===================================================================================

===================================================================================
=   BAD TERMINATION OF ONE OF YOUR APPLICATION PROCESSES
=   RANK 89 PID 2225718 RUNNING AT c548
=   KILLED BY SIGNAL: 9 (Killed)
===================================================================================

===================================================================================
=   BAD TERMINATION OF ONE OF YOUR APPLICATION PROCESSES
=   RANK 90 PID 2225719 RUNNING AT c548
=   KILLED BY SIGNAL: 9 (Killed)
===================================================================================

===================================================================================
=   BAD TERMINATION OF ONE OF YOUR APPLICATION PROCESSES
=   RANK 91 PID 2225720 RUNNING AT c548
=   KILLED BY SIGNAL: 9 (Killed)
===================================================================================

===================================================================================
=   BAD TERMINATION OF ONE OF YOUR APPLICATION PROCESSES
=   RANK 92 PID 2225721 RUNNING AT c548
=   KILLED BY SIGNAL: 9 (Killed)
===================================================================================

===================================================================================
=   BAD TERMINATION OF ONE OF YOUR APPLICATION PROCESSES
=   RANK 93 PID 2225722 RUNNING AT c548
=   KILLED BY SIGNAL: 9 (Killed)
===================================================================================

===================================================================================
=   BAD TERMINATION OF ONE OF YOUR APPLICATION PROCESSES
=   RANK 94 PID 2225723 RUNNING AT c548
=   KILLED BY SIGNAL: 9 (Killed)
===================================================================================

===================================================================================
=   BAD TERMINATION OF ONE OF YOUR APPLICATION PROCESSES
=   RANK 95 PID 2225724 RUNNING AT c548
=   KILLED BY SIGNAL: 9 (Killed)
===================================================================================
I_MPI_JOB_TIMEOUT = -1 second(s): job ending due to startup timeout
